TITLE     = "MDVM-Simulation"
VARIABLES = "X"
"Y"
"Z"
"<greek>r</greek>"
"<greek>r</greek>U"
"<greek>r</greek>V"
"<greek>r</greek>W"
"<greek>r</greek>E"
"<greek>r</greek>E<sub>rot</sub>"
"pressure"
"temperature"
"temperature_trans"
"temperature_rot"
"q<sub>trans_x</sub>"
"q<sub>trans_y</sub>"
"q<sub>trans_z</sub>"
"q<sub>rot_x</sub>"
"q<sub>rot_y</sub>"
"q<sub>rot_z</sub>"
"<greek>t</greek><sub>xx</sub>"
"<greek>t</greek><sub>xy</sub>"
"<greek>t</greek><sub>xz</sub>"
"<greek>t</greek><sub>yy</sub>"
"<greek>t</greek><sub>yz</sub>"
"<greek>t</greek><sub>zz</sub>"
ZONE T="MDVM-Simulation"
 STRANDID=0, SOLUTIONTIME=54.2141
 Nodes=7688, Elements=3721, ZONETYPE=FEBrick
 DATAPACKING=BLOCK
 VARLOCATION=([1-3]=NODAL,[4-25]=CELLCENTERED)
 DT=(DOUBLE DOUBLE DOUBLE DOUBLE DOUBLE DOUBLE DOUBLE DOUBLE DOUBLE DOUBLE DOUBLE DOUBLE DOUBLE DOUBLE DOUBLE DOUBLE DOUBLE DOUBLE DOUBLE DOUBLE DOUBLE DOUBLE DOUBLE DOUBLE DOUBLE )
 0.000000000000e+00 1.639344262300e-02 3.278688524590e-02 4.918032786890e-02 6.557377049180e-02 
 8.196721311480e-02 9.836065573770e-02 1.147540983610e-01 1.311475409840e-01 1.475409836070e-01 
 1.639344262300e-01 1.803278688520e-01 1.967213114750e-01 2.131147540980e-01 2.295081967210e-01 
 2.459016393440e-01 2.622950819670e-01 2.786885245900e-01 2.950819672130e-01 3.114754098360e-01 
 3.278688524590e-01 3.442622950820e-01 3.606557377050e-01 3.770491803280e-01 3.934426229510e-01 
 4.098360655740e-01 4.262295081970e-01 4.426229508200e-01 4.590163934430e-01 4.754098360660e-01 
 4.918032786890e-01 5.081967213110e-01 5.245901639340e-01 5.409836065570e-01 5.573770491800e-01 
 5.737704918030e-01 5.901639344260e-01 6.065573770490e-01 6.229508196720e-01 6.393442622950e-01 
 6.557377049180e-01 6.721311475410e-01 6.885245901640e-01 7.049180327870e-01 7.213114754100e-01 
 7.377049180330e-01 7.540983606560e-01 7.704918032790e-01 7.868852459020e-01 8.032786885250e-01 
 8.196721311480e-01 8.360655737700e-01 8.524590163930e-01 8.688524590160e-01 8.852459016390e-01 
 9.016393442620e-01 9.180327868850e-01 9.344262295080e-01 9.508196721310e-01 9.672131147540e-01 
 9.836065573770e-01 1.000000000000e+00 0.000000000000e+00 1.639344262300e-02 3.278688524590e-02 
 4.918032786890e-02 6.557377049180e-02 8.196721311480e-02 9.836065573770e-02 1.147540983610e-01 
 1.311475409840e-01 1.475409836070e-01 1.639344262300e-01 1.803278688520e-01 1.967213114750e-01 
 2.131147540980e-01 2.295081967210e-01 2.459016393440e-01 2.622950819670e-01 2.786885245900e-01 
 2.950819672130e-01 3.114754098360e-01 3.278688524590e-01 3.442622950820e-01 3.606557377050e-01 
 3.770491803280e-01 3.934426229510e-01 4.098360655740e-01 4.262295081970e-01 4.426229508200e-01 
 4.590163934430e-01 4.754098360660e-01 4.918032786890e-01 5.081967213110e-01 5.245901639340e-01 
 5.409836065570e-01 5.573770491800e-01 5.737704918030e-01 5.901639344260e-01 6.065573770490e-01 
 6.229508196720e-01 6.393442622950e-01 6.557377049180e-01 6.721311475410e-01 6.885245901640e-01 
 7.049180327870e-01 7.213114754100e-01 7.377049180330e-01 7.540983606560e-01 7.704918032790e-01 
 7.868852459020e-01 8.032786885250e-01 8.196721311480e-01 8.360655737700e-01 8.524590163930e-01 
 8.688524590160e-01 8.852459016390e-01 9.016393442620e-01 9.180327868850e-01 9.344262295080e-01 
 9.508196721310e-01 9.672131147540e-01 9.836065573770e-01 1.000000000000e+00 0.000000000000e+00 
 1.639344262300e-02 3.278688524590e-02 4.918032786890e-02 6.557377049180e-02 8.196721311480e-02 
 9.836065573770e-02 1.147540983610e-01 1.311475409840e-01 1.475409836070e-01 1.639344262300e-01 
 1.803278688520e-01 1.967213114750e-01 2.131147540980e-01 2.295081967210e-01 2.459016393440e-01 
 2.622950819670e-01 2.786885245900e-01 2.950819672130e-01 3.114754098360e-01 3.278688524590e-01 
 3.442622950820e-01 3.606557377050e-01 3.770491803280e-01 3.934426229510e-01 4.098360655740e-01 
 4.262295081970e-01 4.426229508200e-01 4.590163934430e-01 4.754098360660e-01 4.918032786890e-01 
 5.081967213110e-01 5.245901639340e-01 5.409836065570e-01 5.573770491800e-01 5.737704918030e-01 
 5.901639344260e-01 6.065573770490e-01 6.229508196720e-01 6.393442622950e-01 6.557377049180e-01 
 6.721311475410e-01 6.885245901640e-01 7.049180327870e-01 7.213114754100e-01 7.377049180330e-01 
 7.540983606560e-01 7.704918032790e-01 7.868852459020e-01 8.032786885250e-01 8.196721311480e-01 
 8.360655737700e-01 8.524590163930e-01 8.688524590160e-01 8.852459016390e-01 9.016393442620e-01 
 9.180327868850e-01 9.344262295080e-01 9.508196721310e-01 9.672131147540e-01 9.836065573770e-01 
 1.000000000000e+00 0.000000000000e+00 1.639344262300e-02 3.278688524590e-02 4.918032786890e-02 
 6.557377049180e-02 8.196721311480e-02 9.836065573770e-02 1.147540983610e-01 1.311475409840e-01 
 1.475409836070e-01 1.639344262300e-01 1.803278688520e-01 1.967213114750e-01 2.131147540980e-01 
 2.295081967210e-01 2.459016393440e-01 2.622950819670e-01 2.786885245900e-01 2.950819672130e-01 
 3.114754098360e-01 3.278688524590e-01 3.442622950820e-01 3.606557377050e-01 3.770491803280e-01 
 3.934426229510e-01 4.098360655740e-01 4.262295081970e-01 4.426229508200e-01 4.590163934430e-01 
 4.754098360660e-01 4.918032786890e-01 5.081967213110e-01 5.245901639340e-01 5.409836065570e-01 
 5.573770491800e-01 5.737704918030e-01 5.901639344260e-01 6.065573770490e-01 6.229508196720e-01 
 6.393442622950e-01 6.557377049180e-01 6.721311475410e-01 6.885245901640e-01 7.049180327870e-01 
 7.213114754100e-01 7.377049180330e-01 7.540983606560e-01 7.704918032790e-01 7.868852459020e-01 
 8.032786885250e-01 8.196721311480e-01 8.360655737700e-01 8.524590163930e-01 8.688524590160e-01 
 8.852459016390e-01 9.016393442620e-01 9.180327868850e-01 9.344262295080e-01 9.508196721310e-01 
 9.672131147540e-01 9.836065573770e-01 1.000000000000e+00 0.000000000000e+00 1.639344262300e-02 
 3.278688524590e-02 4.918032786890e-02 6.557377049180e-02 8.196721311480e-02 9.836065573770e-02 
 1.147540983610e-01 1.311475409840e-01 1.475409836070e-01 1.639344262300e-01 1.803278688520e-01 
 1.967213114750e-01 2.131147540980e-01 2.295081967210e-01 2.459016393440e-01 2.622950819670e-01 
 2.786885245900e-01 2.950819672130e-01 3.114754098360e-01 3.278688524590e-01 3.442622950820e-01 
 3.606557377050e-01 3.770491803280e-01 3.934426229510e-01 4.098360655740e-01 4.262295081970e-01 
 4.426229508200e-01 4.590163934430e-01 4.754098360660e-01 4.918032786890e-01 5.081967213110e-01 
 5.245901639340e-01 5.409836065570e-01 5.573770491800e-01 5.737704918030e-01 5.901639344260e-01 
 6.065573770490e-01 6.229508196720e-01 6.393442622950e-01 6.557377049180e-01 6.721311475410e-01 
 6.885245901640e-01 7.049180327870e-01 7.213114754100e-01 7.377049180330e-01 7.540983606560e-01 
 7.704918032790e-01 7.868852459020e-01 8.032786885250e-01 8.196721311480e-01 8.360655737700e-01 
 8.524590163930e-01 8.688524590160e-01 8.852459016390e-01 9.016393442620e-01 9.180327868850e-01 
 9.344262295080e-01 9.508196721310e-01 9.672131147540e-01 9.836065573770e-01 1.000000000000e+00 
 0.000000000000e+00 1.639344262300e-02 3.278688524590e-02 4.918032786890e-02 6.557377049180e-02 
 8.196721311480e-02 9.836065573770e-02 1.147540983610e-01 1.311475409840e-01 1.475409836070e-01 
 1.639344262300e-01 1.803278688520e-01 1.967213114750e-01 2.131147540980e-01 2.295081967210e-01 
 2.459016393440e-01 2.622950819670e-01 2.786885245900e-01 2.950819672130e-01 3.114754098360e-01 
 3.278688524590e-01 3.442622950820e-01 3.606557377050e-01 3.770491803280e-01 3.934426229510e-01 
 4.098360655740e-01 4.262295081970e-01 4.426229508200e-01 4.590163934430e-01 4.754098360660e-01 
 4.918032786890e-01 5.081967213110e-01 5.245901639340e-01 5.409836065570e-01 5.573770491800e-01 
 5.737704918030e-01 5.901639344260e-01 6.065573770490e-01 6.229508196720e-01 6.393442622950e-01 
 6.557377049180e-01 6.721311475410e-01 6.885245901640e-01 7.049180327870e-01 7.213114754100e-01 
 7.377049180330e-01 7.540983606560e-01 7.704918032790e-01 7.868852459020e-01 8.032786885250e-01 
 8.196721311480e-01 8.360655737700e-01 8.524590163930e-01 8.688524590160e-01 8.852459016390e-01 
 9.016393442620e-01 9.180327868850e-01 9.344262295080e-01 9.508196721310e-01 9.672131147540e-01 
 9.836065573770e-01 1.000000000000e+00 0.000000000000e+00 1.639344262300e-02 3.278688524590e-02 
 4.918032786890e-02 6.557377049180e-02 8.196721311480e-02 9.836065573770e-02 1.147540983610e-01 
 1.311475409840e-01 1.475409836070e-01 1.639344262300e-01 1.803278688520e-01 1.967213114750e-01 
 2.131147540980e-01 2.295081967210e-01 2.459016393440e-01 2.622950819670e-01 2.786885245900e-01 
 2.950819672130e-01 3.114754098360e-01 3.278688524590e-01 3.442622950820e-01 3.606557377050e-01 
 3.770491803280e-01 3.934426229510e-01 4.098360655740e-01 4.262295081970e-01 4.426229508200e-01 
 4.590163934430e-01 4.754098360660e-01 4.918032786890e-01 5.081967213110e-01 5.245901639340e-01 
 5.409836065570e-01 5.573770491800e-01 5.737704918030e-01 5.901639344260e-01 6.065573770490e-01 
 6.229508196720e-01 6.393442622950e-01 6.557377049180e-01 6.721311475410e-01 6.885245901640e-01 
 7.049180327870e-01 7.213114754100e-01 7.377049180330e-01 7.540983606560e-01 7.704918032790e-01 
 7.868852459020e-01 8.032786885250e-01 8.196721311480e-01 8.360655737700e-01 8.524590163930e-01 
 8.688524590160e-01 8.852459016390e-01 9.016393442620e-01 9.180327868850e-01 9.344262295080e-01 
 9.508196721310e-01 9.672131147540e-01 9.836065573770e-01 1.000000000000e+00 0.000000000000e+00 
 1.639344262300e-02 3.278688524590e-02 4.918032786890e-02 6.557377049180e-02 8.196721311480e-02 
 9.836065573770e-02 1.147540983610e-01 1.311475409840e-01 1.475409836070e-01 1.639344262300e-01 
 1.803278688520e-01 1.967213114750e-01 2.131147540980e-01 2.295081967210e-01 2.459016393440e-01 
 2.622950819670e-01 2.786885245900e-01 2.950819672130e-01 3.114754098360e-01 3.278688524590e-01 
 3.442622950820e-01 3.606557377050e-01 3.770491803280e-01 3.934426229510e-01 4.098360655740e-01 
 4.262295081970e-01 4.426229508200e-01 4.590163934430e-01 4.754098360660e-01 4.918032786890e-01 
 5.081967213110e-01 5.245901639340e-01 5.409836065570e-01 5.573770491800e-01 5.737704918030e-01 
 5.901639344260e-01 6.065573770490e-01 6.229508196720e-01 6.393442622950e-01 6.557377049180e-01 
 6.721311475410e-01 6.885245901640e-01 7.049180327870e-01 7.213114754100e-01 7.377049180330e-01 
 7.540983606560e-01 7.704918032790e-01 7.868852459020e-01 8.032786885250e-01 8.196721311480e-01 
 8.360655737700e-01 8.524590163930e-01 8.688524590160e-01 8.852459016390e-01 9.016393442620e-01 
 9.180327868850e-01 9.344262295080e-01 9.508196721310e-01 9.672131147540e-01 9.836065573770e-01 
 1.000000000000e+00 0.000000000000e+00 1.639344262300e-02 3.278688524590e-02 4.918032786890e-02 
 6.557377049180e-02 8.196721311480e-02 9.836065573770e-02 1.147540983610e-01 1.311475409840e-01 
 1.475409836070e-01 1.639344262300e-01 1.803278688520e-01 1.967213114750e-01 2.131147540980e-01 
 2.295081967210e-01 2.459016393440e-01 2.622950819670e-01 2.786885245900e-01 2.950819672130e-01 
 3.114754098360e-01 3.278688524590e-01 3.442622950820e-01 3.606557377050e-01 3.770491803280e-01 
 3.934426229510e-01 4.098360655740e-01 4.262295081970e-01 4.426229508200e-01 4.590163934430e-01 
 4.754098360660e-01 4.918032786890e-01 5.081967213110e-01 5.245901639340e-01 5.409836065570e-01 
 5.573770491800e-01 5.737704918030e-01 5.901639344260e-01 6.065573770490e-01 6.229508196720e-01 
 6.393442622950e-01 6.557377049180e-01 6.721311475410e-01 6.885245901640e-01 7.049180327870e-01 
 7.213114754100e-01 7.377049180330e-01 7.540983606560e-01 7.704918032790e-01 7.868852459020e-01 
 8.032786885250e-01 8.196721311480e-01 8.360655737700e-01 8.524590163930e-01 8.688524590160e-01 
 8.852459016390e-01 9.016393442620e-01 9.180327868850e-01 9.344262295080e-01 9.508196721310e-01 
 9.672131147540e-01 9.836065573770e-01 1.000000000000e+00 0.000000000000e+00 1.639344262300e-02 
 3.278688524590e-02 4.918032786890e-02 6.557377049180e-02 8.196721311480e-02 9.836065573770e-02 
 1.147540983610e-01 1.311475409840e-01 1.475409836070e-01 1.639344262300e-01 1.803278688520e-01 
 1.967213114750e-01 2.131147540980e-01 2.295081967210e-01 2.459016393440e-01 2.622950819670e-01 
 2.786885245900e-01 2.950819672130e-01 3.114754098360e-01 3.278688524590e-01 3.442622950820e-01 
 3.606557377050e-01 3.770491803280e-01 3.934426229510e-01 4.098360655740e-01 4.262295081970e-01 
 4.426229508200e-01 4.590163934430e-01 4.754098360660e-01 4.918032786890e-01 5.081967213110e-01 
 5.245901639340e-01 5.409836065570e-01 5.573770491800e-01 5.737704918030e-01 5.901639344260e-01 
 6.065573770490e-01 6.229508196720e-01 6.393442622950e-01 6.557377049180e-01 6.721311475410e-01 
 6.885245901640e-01 7.049180327870e-01 7.213114754100e-01 7.377049180330e-01 7.540983606560e-01 
 7.704918032790e-01 7.868852459020e-01 8.032786885250e-01 8.196721311480e-01 8.360655737700e-01 
 8.524590163930e-01 8.688524590160e-01 8.852459016390e-01 9.016393442620e-01 9.180327868850e-01 
 9.344262295080e-01 9.508196721310e-01 9.672131147540e-01 9.836065573770e-01 1.000000000000e+00 
 0.000000000000e+00 1.639344262300e-02 3.278688524590e-02 4.918032786890e-02 6.557377049180e-02 
 8.196721311480e-02 9.836065573770e-02 1.147540983610e-01 1.311475409840e-01 1.475409836070e-01 
 1.639344262300e-01 1.803278688520e-01 1.967213114750e-01 2.131147540980e-01 2.295081967210e-01 
 2.459016393440e-01 2.622950819670e-01 2.786885245900e-01 2.950819672130e-01 3.114754098360e-01 
 3.278688524590e-01 3.442622950820e-01 3.606557377050e-01 3.770491803280e-01 3.934426229510e-01 
 4.098360655740e-01 4.262295081970e-01 4.426229508200e-01 4.590163934430e-01 4.754098360660e-01 
 4.918032786890e-01 5.081967213110e-01 5.245901639340e-01 5.409836065570e-01 5.573770491800e-01 
 5.737704918030e-01 5.901639344260e-01 6.065573770490e-01 6.229508196720e-01 6.393442622950e-01 
 6.557377049180e-01 6.721311475410e-01 6.885245901640e-01 7.049180327870e-01 7.213114754100e-01 
 7.377049180330e-01 7.540983606560e-01 7.704918032790e-01 7.868852459020e-01 8.032786885250e-01 
 8.196721311480e-01 8.360655737700e-01 8.524590163930e-01 8.688524590160e-01 8.852459016390e-01 
 9.016393442620e-01 9.180327868850e-01 9.344262295080e-01 9.508196721310e-01 9.672131147540e-01 
 9.836065573770e-01 1.000000000000e+00 0.000000000000e+00 1.639344262300e-02 3.278688524590e-02 
 4.918032786890e-02 6.557377049180e-02 8.196721311480e-02 9.836065573770e-02 1.147540983610e-01 
 1.311475409840e-01 1.475409836070e-01 1.639344262300e-01 1.803278688520e-01 1.967213114750e-01 
 2.131147540980e-01 2.295081967210e-01 2.459016393440e-01 2.622950819670e-01 2.786885245900e-01 
 2.950819672130e-01 3.114754098360e-01 3.278688524590e-01 3.442622950820e-01 3.606557377050e-01 
 3.770491803280e-01 3.934426229510e-01 4.098360655740e-01 4.262295081970e-01 4.426229508200e-01 
 4.590163934430e-01 4.754098360660e-01 4.918032786890e-01 5.081967213110e-01 5.245901639340e-01 
 5.409836065570e-01 5.573770491800e-01 5.737704918030e-01 5.901639344260e-01 6.065573770490e-01 
 6.229508196720e-01 6.393442622950e-01 6.557377049180e-01 6.721311475410e-01 6.885245901640e-01 
 7.049180327870e-01 7.213114754100e-01 7.377049180330e-01 7.540983606560e-01 7.704918032790e-01 
 7.868852459020e-01 8.032786885250e-01 8.196721311480e-01 8.360655737700e-01 8.524590163930e-01 
 8.688524590160e-01 8.852459016390e-01 9.016393442620e-01 9.180327868850e-01 9.344262295080e-01 
 9.508196721310e-01 9.672131147540e-01 9.836065573770e-01 1.000000000000e+00 0.000000000000e+00 
 1.639344262300e-02 3.278688524590e-02 4.918032786890e-02 6.557377049180e-02 8.196721311480e-02 
 9.836065573770e-02 1.147540983610e-01 1.311475409840e-01 1.475409836070e-01 1.639344262300e-01 
 1.803278688520e-01 1.967213114750e-01 2.131147540980e-01 2.295081967210e-01 2.459016393440e-01 
 2.622950819670e-01 2.786885245900e-01 2.950819672130e-01 3.114754098360e-01 3.278688524590e-01 
 3.442622950820e-01 3.606557377050e-01 3.770491803280e-01 3.934426229510e-01 4.098360655740e-01 
 4.262295081970e-01 4.426229508200e-01 4.590163934430e-01 4.754098360660e-01 4.918032786890e-01 
 5.081967213110e-01 5.245901639340e-01 5.409836065570e-01 5.573770491800e-01 5.737704918030e-01 
 5.901639344260e-01 6.065573770490e-01 6.229508196720e-01 6.393442622950e-01 6.557377049180e-01 
 6.721311475410e-01 6.885245901640e-01 7.049180327870e-01 7.213114754100e-01 7.377049180330e-01 
 7.540983606560e-01 7.704918032790e-01 7.868852459020e-01 8.032786885250e-01 8.196721311480e-01 
 8.360655737700e-01 8.524590163930e-01 8.688524590160e-01 8.852459016390e-01 9.016393442620e-01 
 9.180327868850e-01 9.344262295080e-01 9.508196721310e-01 9.672131147540e-01 9.836065573770e-01 
 1.000000000000e+00 0.000000000000e+00 1.639344262300e-02 3.278688524590e-02 4.918032786890e-02 
 6.557377049180e-02 8.196721311480e-02 9.836065573770e-02 1.147540983610e-01 1.311475409840e-01 
 1.475409836070e-01 1.639344262300e-01 1.803278688520e-01 1.967213114750e-01 2.131147540980e-01 
 2.295081967210e-01 2.459016393440e-01 2.622950819670e-01 2.786885245900e-01 2.950819672130e-01 
 3.114754098360e-01 3.278688524590e-01 3.442622950820e-01 3.606557377050e-01 3.770491803280e-01 
 3.934426229510e-01 4.098360655740e-01 4.262295081970e-01 4.426229508200e-01 4.590163934430e-01 
 4.754098360660e-01 4.918032786890e-01 5.081967213110e-01 5.245901639340e-01 5.409836065570e-01 
 5.573770491800e-01 5.737704918030e-01 5.901639344260e-01 6.065573770490e-01 6.229508196720e-01 
 6.393442622950e-01 6.557377049180e-01 6.721311475410e-01 6.885245901640e-01 7.049180327870e-01 
 7.213114754100e-01 7.377049180330e-01 7.540983606560e-01 7.704918032790e-01 7.868852459020e-01 
 8.032786885250e-01 8.196721311480e-01 8.360655737700e-01 8.524590163930e-01 8.688524590160e-01 
 8.852459016390e-01 9.016393442620e-01 9.180327868850e-01 9.344262295080e-01 9.508196721310e-01 
 9.672131147540e-01 9.836065573770e-01 1.000000000000e+00 0.000000000000e+00 1.639344262300e-02 
 3.278688524590e-02 4.918032786890e-02 6.557377049180e-02 8.196721311480e-02 9.836065573770e-02 
 1.147540983610e-01 1.311475409840e-01 1.475409836070e-01 1.639344262300e-01 1.803278688520e-01 
 1.967213114750e-01 2.131147540980e-01 2.295081967210e-01 2.459016393440e-01 2.622950819670e-01 
 2.786885245900e-01 2.950819672130e-01 3.114754098360e-01 3.278688524590e-01 3.442622950820e-01 
 3.606557377050e-01 3.770491803280e-01 3.934426229510e-01 4.098360655740e-01 4.262295081970e-01 
 4.426229508200e-01 4.590163934430e-01 4.754098360660e-01 4.918032786890e-01 5.081967213110e-01 
 5.245901639340e-01 5.409836065570e-01 5.573770491800e-01 5.737704918030e-01 5.901639344260e-01 
 6.065573770490e-01 6.229508196720e-01 6.393442622950e-01 6.557377049180e-01 6.721311475410e-01 
 6.885245901640e-01 7.049180327870e-01 7.213114754100e-01 7.377049180330e-01 7.540983606560e-01 
 7.704918032790e-01 7.868852459020e-01 8.032786885250e-01 8.196721311480e-01 8.360655737700e-01 
 8.524590163930e-01 8.688524590160e-01 8.852459016390e-01 9.016393442620e-01 9.180327868850e-01 
 9.344262295080e-01 9.508196721310e-01 9.672131147540e-01 9.836065573770e-01 1.000000000000e+00 
 0.000000000000e+00 1.639344262300e-02 3.278688524590e-02 4.918032786890e-02 6.557377049180e-02 
 8.196721311480e-02 9.836065573770e-02 1.147540983610e-01 1.311475409840e-01 1.475409836070e-01 
 1.639344262300e-01 1.803278688520e-01 1.967213114750e-01 2.131147540980e-01 2.295081967210e-01 
 2.459016393440e-01 2.622950819670e-01 2.786885245900e-01 2.950819672130e-01 3.114754098360e-01 
 3.278688524590e-01 3.442622950820e-01 3.606557377050e-01 3.770491803280e-01 3.934426229510e-01 
 4.098360655740e-01 4.262295081970e-01 4.426229508200e-01 4.590163934430e-01 4.754098360660e-01 
 4.918032786890e-01 5.081967213110e-01 5.245901639340e-01 5.409836065570e-01 5.573770491800e-01 
 5.737704918030e-01 5.901639344260e-01 6.065573770490e-01 6.229508196720e-01 6.393442622950e-01 
 6.557377049180e-01 6.721311475410e-01 6.885245901640e-01 7.049180327870e-01 7.213114754100e-01 
 7.377049180330e-01 7.540983606560e-01 7.704918032790e-01 7.868852459020e-01 8.032786885250e-01 
 8.196721311480e-01 8.360655737700e-01 8.524590163930e-01 8.688524590160e-01 8.852459016390e-01 
 9.016393442620e-01 9.180327868850e-01 9.344262295080e-01 9.508196721310e-01 9.672131147540e-01 
 9.836065573770e-01 1.000000000000e+00 0.000000000000e+00 1.639344262300e-02 3.278688524590e-02 
 4.918032786890e-02 6.557377049180e-02 8.196721311480e-02 9.836065573770e-02 1.147540983610e-01 
 1.311475409840e-01 1.475409836070e-01 1.639344262300e-01 1.803278688520e-01 1.967213114750e-01 
 2.131147540980e-01 2.295081967210e-01 2.459016393440e-01 2.622950819670e-01 2.786885245900e-01 
 2.950819672130e-01 3.114754098360e-01 3.278688524590e-01 3.442622950820e-01 3.606557377050e-01 
 3.770491803280e-01 3.934426229510e-01 4.098360655740e-01 4.262295081970e-01 4.426229508200e-01 
 4.590163934430e-01 4.754098360660e-01 4.918032786890e-01 5.081967213110e-01 5.245901639340e-01 
 5.409836065570e-01 5.573770491800e-01 5.737704918030e-01 5.901639344260e-01 6.065573770490e-01 
 6.229508196720e-01 6.393442622950e-01 6.557377049180e-01 6.721311475410e-01 6.885245901640e-01 
 7.049180327870e-01 7.213114754100e-01 7.377049180330e-01 7.540983606560e-01 7.704918032790e-01 
 7.868852459020e-01 8.032786885250e-01 8.196721311480e-01 8.360655737700e-01 8.524590163930e-01 
 8.688524590160e-01 8.852459016390e-01 9.016393442620e-01 9.180327868850e-01 9.344262295080e-01 
 9.508196721310e-01 9.672131147540e-01 9.836065573770e-01 1.000000000000e+00 0.000000000000e+00 
 1.639344262300e-02 3.278688524590e-02 4.918032786890e-02 6.557377049180e-02 8.196721311480e-02 
 9.836065573770e-02 1.147540983610e-01 1.311475409840e-01 1.475409836070e-01 1.639344262300e-01 
 1.803278688520e-01 1.967213114750e-01 2.131147540980e-01 2.295081967210e-01 2.459016393440e-01 
 2.622950819670e-01 2.786885245900e-01 2.950819672130e-01 3.114754098360e-01 3.278688524590e-01 
 3.442622950820e-01 3.606557377050e-01 3.770491803280e-01 3.934426229510e-01 4.098360655740e-01 
 4.262295081970e-01 4.426229508200e-01 4.590163934430e-01 4.754098360660e-01 4.918032786890e-01 
 5.081967213110e-01 5.245901639340e-01 5.409836065570e-01 5.573770491800e-01 5.737704918030e-01 
 5.901639344260e-01 6.065573770490e-01 6.229508196720e-01 6.393442622950e-01 6.557377049180e-01 
 6.721311475410e-01 6.885245901640e-01 7.049180327870e-01 7.213114754100e-01 7.377049180330e-01 
 7.540983606560e-01 7.704918032790e-01 7.868852459020e-01 8.032786885250e-01 8.196721311480e-01 
 8.360655737700e-01 8.524590163930e-01 8.688524590160e-01 8.852459016390e-01 9.016393442620e-01 
 9.180327868850e-01 9.344262295080e-01 9.508196721310e-01 9.672131147540e-01 9.836065573770e-01 
 1.000000000000e+00 0.000000000000e+00 1.639344262300e-02 3.278688524590e-02 4.918032786890e-02 
 6.557377049180e-02 8.196721311480e-02 9.836065573770e-02 1.147540983610e-01 1.311475409840e-01 
 1.475409836070e-01 1.639344262300e-01 1.803278688520e-01 1.967213114750e-01 2.131147540980e-01 
 2.295081967210e-01 2.459016393440e-01 2.622950819670e-01 2.786885245900e-01 2.950819672130e-01 
 3.114754098360e-01 3.278688524590e-01 3.442622950820e-01 3.606557377050e-01 3.770491803280e-01 
 3.934426229510e-01 4.098360655740e-01 4.262295081970e-01 4.426229508200e-01 4.590163934430e-01 
 4.754098360660e-01 4.918032786890e-01 5.081967213110e-01 5.245901639340e-01 5.409836065570e-01 
 5.573770491800e-01 5.737704918030e-01 5.901639344260e-01 6.065573770490e-01 6.229508196720e-01 
 6.393442622950e-01 6.557377049180e-01 6.721311475410e-01 6.885245901640e-01 7.049180327870e-01 
 7.213114754100e-01 7.377049180330e-01 7.540983606560e-01 7.704918032790e-01 7.868852459020e-01 
 8.032786885250e-01 8.196721311480e-01 8.360655737700e-01 8.524590163930e-01 8.688524590160e-01 
 8.852459016390e-01 9.016393442620e-01 9.180327868850e-01 9.344262295080e-01 9.508196721310e-01 
 9.672131147540e-01 9.836065573770e-01 1.000000000000e+00 0.000000000000e+00 1.639344262300e-02 
 3.278688524590e-02 4.918032786890e-02 6.557377049180e-02 8.196721311480e-02 9.836065573770e-02 
 1.147540983610e-01 1.311475409840e-01 1.475409836070e-01 1.639344262300e-01 1.803278688520e-01 
 1.967213114750e-01 2.131147540980e-01 2.295081967210e-01 2.459016393440e-01 2.622950819670e-01 
 2.786885245900e-01 2.950819672130e-01 3.114754098360e-01 3.278688524590e-01 3.442622950820e-01 
 3.606557377050e-01 3.770491803280e-01 3.934426229510e-01 4.098360655740e-01 4.262295081970e-01 
 4.426229508200e-01 4.590163934430e-01 4.754098360660e-01 4.918032786890e-01 5.081967213110e-01 
 5.245901639340e-01 5.409836065570e-01 5.573770491800e-01 5.737704918030e-01 5.901639344260e-01 
 6.065573770490e-01 6.229508196720e-01 6.393442622950e-01 6.557377049180e-01 6.721311475410e-01 
 6.885245901640e-01 7.049180327870e-01 7.213114754100e-01 7.377049180330e-01 7.540983606560e-01 
 7.704918032790e-01 7.868852459020e-01 8.032786885250e-01 8.196721311480e-01 8.360655737700e-01 
 8.524590163930e-01 8.688524590160e-01 8.852459016390e-01 9.016393442620e-01 9.180327868850e-01 
 9.344262295080e-01 9.508196721310e-01 9.672131147540e-01 9.836065573770e-01 1.000000000000e+00 
 0.000000000000e+00 1.639344262300e-02 3.278688524590e-02 4.918032786890e-02 6.557377049180e-02 
 8.196721311480e-02 9.836065573770e-02 1.147540983610e-01 1.311475409840e-01 1.475409836070e-01 
 1.639344262300e-01 1.803278688520e-01 1.967213114750e-01 2.131147540980e-01 2.295081967210e-01 
 2.459016393440e-01 2.622950819670e-01 2.786885245900e-01 2.950819672130e-01 3.114754098360e-01 
 3.278688524590e-01 3.442622950820e-01 3.606557377050e-01 3.770491803280e-01 3.934426229510e-01 
 4.098360655740e-01 4.262295081970e-01 4.426229508200e-01 4.590163934430e-01 4.754098360660e-01 
 4.918032786890e-01 5.081967213110e-01 5.245901639340e-01 5.409836065570e-01 5.573770491800e-01 
 5.737704918030e-01 5.901639344260e-01 6.065573770490e-01 6.229508196720e-01 6.393442622950e-01 
 6.557377049180e-01 6.721311475410e-01 6.885245901640e-01 7.049180327870e-01 7.213114754100e-01 
 7.377049180330e-01 7.540983606560e-01 7.704918032790e-01 7.868852459020e-01 8.032786885250e-01 
 8.196721311480e-01 8.360655737700e-01 8.524590163930e-01 8.688524590160e-01 8.852459016390e-01 
 9.016393442620e-01 9.180327868850e-01 9.344262295080e-01 9.508196721310e-01 9.672131147540e-01 
 9.836065573770e-01 1.000000000000e+00 0.000000000000e+00 1.639344262300e-02 3.278688524590e-02 
 4.918032786890e-02 6.557377049180e-02 8.196721311480e-02 9.836065573770e-02 1.147540983610e-01 
 1.311475409840e-01 1.475409836070e-01 1.639344262300e-01 1.803278688520e-01 1.967213114750e-01 
 2.131147540980e-01 2.295081967210e-01 2.459016393440e-01 2.622950819670e-01 2.786885245900e-01 
 2.950819672130e-01 3.114754098360e-01 3.278688524590e-01 3.442622950820e-01 3.606557377050e-01 
 3.770491803280e-01 3.934426229510e-01 4.098360655740e-01 4.262295081970e-01 4.426229508200e-01 
 4.590163934430e-01 4.754098360660e-01 4.918032786890e-01 5.081967213110e-01 5.245901639340e-01 
 5.409836065570e-01 5.573770491800e-01 5.737704918030e-01 5.901639344260e-01 6.065573770490e-01 
 6.229508196720e-01 6.393442622950e-01 6.557377049180e-01 6.721311475410e-01 6.885245901640e-01 
 7.049180327870e-01 7.213114754100e-01 7.377049180330e-01 7.540983606560e-01 7.704918032790e-01 
 7.868852459020e-01 8.032786885250e-01 8.196721311480e-01 8.360655737700e-01 8.524590163930e-01 
 8.688524590160e-01 8.852459016390e-01 9.016393442620e-01 9.180327868850e-01 9.344262295080e-01 
 9.508196721310e-01 9.672131147540e-01 9.836065573770e-01 1.000000000000e+00 0.000000000000e+00 
 1.639344262300e-02 3.278688524590e-02 4.918032786890e-02 6.557377049180e-02 8.196721311480e-02 
 9.836065573770e-02 1.147540983610e-01 1.311475409840e-01 1.475409836070e-01 1.639344262300e-01 
 1.803278688520e-01 1.967213114750e-01 2.131147540980e-01 2.295081967210e-01 2.459016393440e-01 
 2.622950819670e-01 2.786885245900e-01 2.950819672130e-01 3.114754098360e-01 3.278688524590e-01 
 3.442622950820e-01 3.606557377050e-01 3.770491803280e-01 3.934426229510e-01 4.098360655740e-01 
 4.262295081970e-01 4.426229508200e-01 4.590163934430e-01 4.754098360660e-01 4.918032786890e-01 
 5.081967213110e-01 5.245901639340e-01 5.409836065570e-01 5.573770491800e-01 5.737704918030e-01 
 5.901639344260e-01 6.065573770490e-01 6.229508196720e-01 6.393442622950e-01 6.557377049180e-01 
 6.721311475410e-01 6.885245901640e-01 7.049180327870e-01 7.213114754100e-01 7.377049180330e-01 
 7.540983606560e-01 7.704918032790e-01 7.868852459020e-01 8.032786885250e-01 8.196721311480e-01 
 8.360655737700e-01 8.524590163930e-01 8.688524590160e-01 8.852459016390e-01 9.016393442620e-01 
 9.180327868850e-01 9.344262295080e-01 9.508196721310e-01 9.672131147540e-01 9.836065573770e-01 
 1.000000000000e+00 0.000000000000e+00 1.639344262300e-02 3.278688524590e-02 4.918032786890e-02 
 6.557377049180e-02 8.196721311480e-02 9.836065573770e-02 1.147540983610e-01 1.311475409840e-01 
 1.475409836070e-01 1.639344262300e-01 1.803278688520e-01 1.967213114750e-01 2.131147540980e-01 
 2.295081967210e-01 2.459016393440e-01 2.622950819670e-01 2.786885245900e-01 2.950819672130e-01 
 3.114754098360e-01 3.278688524590e-01 3.442622950820e-01 3.606557377050e-01 3.770491803280e-01 
 3.934426229510e-01 4.098360655740e-01 4.262295081970e-01 4.426229508200e-01 4.590163934430e-01 
 4.754098360660e-01 4.918032786890e-01 5.081967213110e-01 5.245901639340e-01 5.409836065570e-01 
 5.573770491800e-01 5.737704918030e-01 5.901639344260e-01 6.065573770490e-01 6.229508196720e-01 
 6.393442622950e-01 6.557377049180e-01 6.721311475410e-01 6.885245901640e-01 7.049180327870e-01 
 7.213114754100e-01 7.377049180330e-01 7.540983606560e-01 7.704918032790e-01 7.868852459020e-01 
 8.032786885250e-01 8.196721311480e-01 8.360655737700e-01 8.524590163930e-01 8.688524590160e-01 
 8.852459016390e-01 9.016393442620e-01 9.180327868850e-01 9.344262295080e-01 9.508196721310e-01 
 9.672131147540e-01 9.836065573770e-01 1.000000000000e+00 0.000000000000e+00 1.639344262300e-02 
 3.278688524590e-02 4.918032786890e-02 6.557377049180e-02 8.196721311480e-02 9.836065573770e-02 