TITLE     = "MDVM-Simulation"
VARIABLES = "X"
"<greek>r</greek>V"
"temperature"
"temperature_trans"
"temperature_rot"
"q<sub>trans_x</sub>"
"q<sub>trans_y</sub>"
ZONE T="Extracted Points"
 STRANDID=0, SOLUTIONTIME=0
 I=101, J=1, K=1, ZONETYPE=Ordered
 DATAPACKING=BLOCK
 DT=(DOUBLE DOUBLE DOUBLE DOUBLE DOUBLE DOUBLE DOUBLE )
 0.000000000E+00 1.000000000E-02 2.000000000E-02 3.000000000E-02 4.000000000E-02
 5.000000000E-02 6.000000000E-02 7.000000000E-02 8.000000000E-02 9.000000000E-02
 1.000000000E-01 1.100000000E-01 1.200000000E-01 1.300000000E-01 1.400000000E-01
 1.500000000E-01 1.600000000E-01 1.700000000E-01 1.800000000E-01 1.900000000E-01
 2.000000000E-01 2.100000000E-01 2.200000000E-01 2.300000000E-01 2.400000000E-01
 2.500000000E-01 2.600000000E-01 2.700000000E-01 2.800000000E-01 2.900000000E-01
 3.000000000E-01 3.100000000E-01 3.200000000E-01 3.300000000E-01 3.400000000E-01
 3.500000000E-01 3.600000000E-01 3.700000000E-01 3.800000000E-01 3.900000000E-01
 4.000000000E-01 4.100000000E-01 4.200000000E-01 4.300000000E-01 4.400000000E-01
 4.500000000E-01 4.600000000E-01 4.700000000E-01 4.800000000E-01 4.900000000E-01
 5.000000000E-01 5.100000000E-01 5.200000000E-01 5.300000000E-01 5.400000000E-01
 5.500000000E-01 5.600000000E-01 5.700000000E-01 5.800000000E-01 5.900000000E-01
 6.000000000E-01 6.100000000E-01 6.200000000E-01 6.300000000E-01 6.400000000E-01
 6.500000000E-01 6.600000000E-01 6.700000000E-01 6.800000000E-01 6.900000000E-01
 7.000000000E-01 7.100000000E-01 7.200000000E-01 7.300000000E-01 7.400000000E-01
 7.500000000E-01 7.600000000E-01 7.700000000E-01 7.800000000E-01 7.900000000E-01
 8.000000000E-01 8.100000000E-01 8.200000000E-01 8.300000000E-01 8.400000000E-01
 8.500000000E-01 8.600000000E-01 8.700000000E-01 8.800000000E-01 8.900000000E-01
 9.000000000E-01 9.100000000E-01 9.200000000E-01 9.300000000E-01 9.400000000E-01
 9.500000000E-01 9.600000000E-01 9.700000000E-01 9.800000000E-01 9.900000000E-01
 1.000000000E+00
 1.061607069E-02 1.119664455E-02 1.197486460E-02 1.310345744E-02 1.414256127E-02
 1.513169744E-02 1.594843933E-02 1.668552221E-02 1.732229376E-02 1.783553669E-02
 1.829682808E-02 1.864745140E-02 1.893458333E-02 1.916417620E-02 1.929347908E-02
 1.938439588E-02 1.939746378E-02 1.935528072E-02 1.927725921E-02 1.912007176E-02
 1.893463919E-02 1.869680549E-02 1.840836419E-02 1.809383481E-02 1.771755176E-02
 1.731830066E-02 1.688597556E-02 1.641455523E-02 1.592519759E-02 1.539415597E-02
 1.484141825E-02 1.426626121E-02 1.365966146E-02 1.304109611E-02 1.239844362E-02
 1.173905153E-02 1.106722429E-02 1.036960459E-02 9.663574493E-03 8.941776771E-03
 8.208697944E-03 7.469429914E-03 6.714164475E-03 5.952904362E-03 5.181740004E-03
 4.401976593E-03 3.618540307E-03 2.829462538E-03 2.038036271E-03 1.243842130E-03
 4.445374273E-04 -3.565465949E-04 -1.160607870E-03 -1.963761933E-03 -2.766146240E-03
 -3.564336715E-03 -4.360918120E-03 -5.154260756E-03 -5.944175293E-03 -6.732014927E-03
 -7.509343953E-03 -8.281023005E-03 -9.042273872E-03 -9.790722187E-03 -1.053247399E-02
 -1.125516922E-02 -1.196726994E-02 -1.266510885E-02 -1.333859950E-02 -1.400015985E-02
 -1.463089005E-02 -1.524135603E-02 -1.583221147E-02 -1.638390521E-02 -1.691756693E-02
 -1.741053728E-02 -1.786729328E-02 -1.829890044E-02 -1.866509190E-02 -1.900487853E-02
 -1.929377606E-02 -1.952848595E-02 -1.973372250E-02 -1.984926887E-02 -1.992384417E-02
 -1.993525571E-02 -1.986371691E-02 -1.975170390E-02 -1.953612517E-02 -1.925980789E-02
 -1.891646877E-02 -1.845031022E-02 -1.792603129E-02 -1.726276333E-02 -1.649569461E-02
 -1.564619589E-02 -1.462359551E-02 -1.354717425E-02 -1.237145438E-02 -1.155797149E-02
 -1.094882740E-02
 9.995997828E-01 9.996117098E-01 9.996245588E-01 9.996390425E-01 9.996459894E-01
 9.996501295E-01 9.996554496E-01 9.996631319E-01 9.996737887E-01 9.996880550E-01
 9.997034544E-01 9.997201237E-01 9.997369469E-01 9.997539094E-01 9.997734630E-01
 9.997947755E-01 9.998204517E-01 9.998482579E-01 9.998774458E-01 9.999057717E-01
 9.999338712E-01 9.999615665E-01 9.999912377E-01 1.000022011E+00 1.000056816E+00
 1.000092160E+00 1.000128284E+00 1.000162987E+00 1.000197235E+00 1.000231269E+00
 1.000266478E+00 1.000302899E+00 1.000340697E+00 1.000378510E+00 1.000415503E+00
 1.000451598E+00 1.000487025E+00 1.000522600E+00 1.000558373E+00 1.000594596E+00
 1.000630452E+00 1.000666102E+00 1.000700919E+00 1.000735508E+00 1.000769722E+00
 1.000803007E+00 1.000835821E+00 1.000867339E+00 1.000898565E+00 1.000929448E+00
 1.000959620E+00 1.000989212E+00 1.001016887E+00 1.001043613E+00 1.001069535E+00
 1.001095725E+00 1.001121879E+00 1.001147850E+00 1.001172296E+00 1.001195817E+00
 1.001216712E+00 1.001237310E+00 1.001257426E+00 1.001277619E+00 1.001297716E+00
 1.001316002E+00 1.001332631E+00 1.001347028E+00 1.001359412E+00 1.001371273E+00
 1.001383256E+00 1.001395050E+00 1.001406661E+00 1.001415247E+00 1.001422391E+00
 1.001426229E+00 1.001428915E+00 1.001430802E+00 1.001432293E+00 1.001433163E+00
 1.001432707E+00 1.001429293E+00 1.001424291E+00 1.001414969E+00 1.001404919E+00
 1.001393748E+00 1.001381795E+00 1.001369137E+00 1.001353010E+00 1.001334294E+00
 1.001312721E+00 1.001288020E+00 1.001262067E+00 1.001233510E+00 1.001202431E+00
 1.001169350E+00 1.001130450E+00 1.001091035E+00 1.001051634E+00 1.001026042E+00
 1.001008238E+00
 9.993844284E-01 9.994058904E-01 9.994289620E-01 9.994548869E-01 9.994667608E-01
 9.994732400E-01 9.994801002E-01 9.994900080E-01 9.995037537E-01 9.995220566E-01
 9.995416207E-01 9.995619254E-01 9.995817483E-01 9.996011347E-01 9.996236763E-01
 9.996486491E-01 9.996798239E-01 9.997137532E-01 9.997494692E-01 9.997827850E-01
 9.998154184E-01 9.998468196E-01 9.998809004E-01 9.999165007E-01 9.999580445E-01
 1.000000268E+00 1.000043471E+00 1.000083972E+00 1.000123552E+00 1.000162359E+00
 1.000202963E+00 1.000245424E+00 1.000290091E+00 1.000334752E+00 1.000377981E+00
 1.000419679E+00 1.000460241E+00 1.000501158E+00 1.000542461E+00 1.000584630E+00
 1.000626286E+00 1.000667654E+00 1.000707930E+00 1.000747989E+00 1.000787690E+00
 1.000826189E+00 1.000864071E+00 1.000900220E+00 1.000936136E+00 1.000971777E+00
 1.001006790E+00 1.001041081E+00 1.001072721E+00 1.001103119E+00 1.001132463E+00
 1.001162883E+00 1.001193549E+00 1.001224575E+00 1.001253643E+00 1.001281526E+00
 1.001305812E+00 1.001329934E+00 1.001353856E+00 1.001378697E+00 1.001403781E+00
 1.001426870E+00 1.001447647E+00 1.001465315E+00 1.001480590E+00 1.001495453E+00
 1.001511674E+00 1.001528232E+00 1.001545116E+00 1.001558113E+00 1.001569227E+00
 1.001575986E+00 1.001581757E+00 1.001586843E+00 1.001592815E+00 1.001598376E+00
 1.001602929E+00 1.001603810E+00 1.001602719E+00 1.001596284E+00 1.001589411E+00
 1.001581865E+00 1.001574634E+00 1.001567050E+00 1.001555960E+00 1.001541787E+00
 1.001524214E+00 1.001503779E+00 1.001482423E+00 1.001459602E+00 1.001434941E+00
 1.001408820E+00 1.001376647E+00 1.001345025E+00 1.001316232E+00 1.001299373E+00
 1.001289246E+00
 9.999228146E-01 9.999204388E-01 9.999179541E-01 9.999152761E-01 9.999148322E-01
 9.999154638E-01 9.999184738E-01 9.999228177E-01 9.999288412E-01 9.999370528E-01
 9.999462049E-01 9.999574213E-01 9.999697447E-01 9.999830714E-01 9.999981431E-01
 1.000013965E+00 1.000031393E+00 1.000050015E+00 1.000069411E+00 1.000090252E+00
 1.000111550E+00 1.000133687E+00 1.000156744E+00 1.000180277E+00 1.000204972E+00
 1.000229999E+00 1.000255502E+00 1.000281509E+00 1.000307759E+00 1.000334635E+00
 1.000361750E+00 1.000389112E+00 1.000416605E+00 1.000444148E+00 1.000471786E+00
 1.000499475E+00 1.000527201E+00 1.000554763E+00 1.000582241E+00 1.000609545E+00
 1.000636702E+00 1.000663774E+00 1.000690402E+00 1.000716787E+00 1.000742769E+00
 1.000768235E+00 1.000793447E+00 1.000818018E+00 1.000842209E+00 1.000865955E+00
 1.000888864E+00 1.000911409E+00 1.000933134E+00 1.000954354E+00 1.000975144E+00
 1.000994987E+00 1.001014374E+00 1.001032763E+00 1.001050274E+00 1.001067253E+00
 1.001083060E+00 1.001098373E+00 1.001112781E+00 1.001126001E+00 1.001138618E+00
 1.001149701E+00 1.001160105E+00 1.001169597E+00 1.001177645E+00 1.001185003E+00
 1.001190630E+00 1.001195278E+00 1.001198979E+00 1.001200947E+00 1.001202138E+00
 1.001201594E+00 1.001199652E+00 1.001196740E+00 1.001191510E+00 1.001185344E+00
 1.001177373E+00 1.001167518E+00 1.001156650E+00 1.001142996E+00 1.001128180E+00
 1.001111572E+00 1.001092536E+00 1.001072266E+00 1.001048585E+00 1.001023054E+00
 1.000995480E+00 1.000964381E+00 1.000931534E+00 1.000894371E+00 1.000853664E+00
 1.000810144E+00 1.000761155E+00 1.000710051E+00 1.000654738E+00 1.000616045E+00
 1.000586727E+00
 -1.699415543E-04 -1.628637711E-04 -1.504316867E-04 -1.285078868E-04 -9.696643796E-05
 -6.129650081E-05 -2.100568465E-05 1.829162567E-05 5.633785456E-05 9.267975005E-05
 1.292465869E-04 1.690893026E-04 2.120044340E-04 2.577039421E-04 3.015369577E-04
 3.429532862E-04 3.777004293E-04 4.103912889E-04 4.417483428E-04 4.789290221E-04
 5.173424730E-04 5.578784133E-04 5.948967784E-04 6.299888689E-04 6.586044712E-04
 6.866799618E-04 7.139776913E-04 7.435037584E-04 7.736720052E-04 8.036972811E-04
 8.311704842E-04 8.560065453E-04 8.775987102E-04 8.987063739E-04 9.200981325E-04
 9.407808951E-04 9.609369749E-04 9.791298691E-04 9.970622559E-04 1.014701430E-03
 1.031257476E-03 1.047199982E-03 1.060448636E-03 1.073215103E-03 1.085184913E-03
 1.096658453E-03 1.107840073E-03 1.117963225E-03 1.127313819E-03 1.135753899E-03
 1.142511037E-03 1.148594167E-03 1.153296569E-03 1.157077498E-03 1.160076571E-03
 1.161861105E-03 1.163350143E-03 1.164380742E-03 1.164109765E-03 1.163050991E-03
 1.158946513E-03 1.154099406E-03 1.147934458E-03 1.141741955E-03 1.135524389E-03
 1.129114025E-03 1.120885668E-03 1.110210013E-03 1.095196923E-03 1.078901082E-03
 1.061981073E-03 1.046119132E-03 1.031281128E-03 1.013449724E-03 9.933812217E-04
 9.673193330E-04 9.393025639E-04 9.099282389E-04 8.825770707E-04 8.553663410E-04
 8.282347316E-04 7.969662222E-04 7.634661686E-04 7.236665611E-04 6.840659965E-04
 6.447722900E-04 6.086960879E-04 5.735358520E-04 5.373479184E-04 4.973803082E-04
 4.532420205E-04 4.074001883E-04 3.633154600E-04 3.277695219E-04 2.968429095E-04
 2.695845850E-04 2.417008879E-04 2.143069968E-04 1.883253577E-04 1.716849149E-04
 1.603138650E-04
 -1.126436229E-04 -1.924833222E-04 -2.928992770E-04 -4.297913215E-04 -5.341705622E-04
 -6.239222434E-04 -6.905370260E-04 -7.547657222E-04 -8.159897168E-04 -8.645886970E-04
 -9.056394582E-04 -9.239626875E-04 -9.350666568E-04 -9.396281718E-04 -9.487915153E-04
 -9.592875151E-04 -9.720409586E-04 -9.769714587E-04 -9.768276171E-04 -9.610876971E-04
 -9.449244545E-04 -9.289771956E-04 -9.193679470E-04 -9.125445149E-04 -9.041477622E-04
 -8.906429861E-04 -8.697826565E-04 -8.441990601E-04 -8.180379616E-04 -7.973718273E-04
 -7.796535625E-04 -7.649814295E-04 -7.443787999E-04 -7.205307330E-04 -6.884894162E-04
 -6.584884541E-04 -6.300031841E-04 -6.107126506E-04 -5.911676724E-04 -5.694734360E-04
 -5.400643917E-04 -5.066036764E-04 -4.730591521E-04 -4.435862436E-04 -4.208403522E-04
 -3.994877717E-04 -3.774437325E-04 -3.445201613E-04 -3.085683557E-04 -2.690475592E-04
 -2.365170699E-04 -2.069625511E-04 -1.839448638E-04 -1.578543509E-04 -1.291565921E-04
 -8.965432710E-05 -4.915028270E-05 -9.143752568E-06 2.306949733E-05 5.056576183E-05
 7.591155362E-05 1.048165955E-04 1.405694304E-04 1.806245711E-04 2.221620811E-04
 2.591595966E-04 2.923480904E-04 3.204090547E-04 3.491424050E-04 3.794805482E-04
 4.180386693E-04 4.571985911E-04 4.969409008E-04 5.284724904E-04 5.570959627E-04
 5.801171581E-04 6.046207217E-04 6.301537077E-04 6.623797010E-04 6.936811315E-04
 7.221735292E-04 7.392942096E-04 7.506023549E-04 7.540825010E-04 7.598179508E-04
 7.690303272E-04 7.787510317E-04 7.869787291E-04 7.824102285E-04 7.662031265E-04
 7.371534297E-04 6.961558519E-04 6.526789257E-04 6.086441081E-04 5.555136444E-04
 4.951601676E-04 3.919482910E-04 2.727791325E-04 1.222130263E-04 1.551512694E-05
 -6.643660451E-05
